 Gaussian 09, Revision B.01,

 ------------------------
 #wb97xd/6-31g(2df,p) Opt
 ------------------------

 ------------
 G4-B3LYP ch4
 ------------
 Symbolic Z-matrix:
 Charge =  0 Multiplicity = 1

 SCF Done:  E(RwB97XD) =  -40.5073081556     A.U. after   12 cycles
 Optimization completed.
    -- Stationary point found.

 1\1\GINC-PLUTO\FOpt\RwB97XD\6-31G(2df,p)\C1H4\JMSOLANO\25-Apr-2025\0\\
 #wb97xd/6-31g(2df,p) Opt\\G4-B3LYP ch4\\0,1\C,0.000034,-0.000016,-0.00
 0341\H,-0.013801,0.006884,1.091369\H,-0.40193,0.943784,-0.374154\H,-0.
 61158,-0.827351,-0.365677\H,1.027106,-0.123221,-0.349489\\Version=EM64
 L-G09RevB.01\State=1-A\HF=-40.5073082\RMSD=1.702e-09\RMSF=1.841e-04\Di
 pole=-0.0000448,0.0000329,0.0004459\Quadrupole=0.0017761,0.0013154,-0.
 0030915,-0.0000859,-0.0000052,0.0000013\PG=C01 [X(C1H4)]\\@

 Normal termination of Gaussian 09 at Fri Apr 25 13:42:06 2025.

 -----------------------------------------------------------------
 #N Geom=AllCheck Guess=TCheck SCRF=Check wb97xd/6-31g(2df,p) Freq
 -----------------------------------------------------------------

 G4-B3LYP ch4
 ------------
 Redundant internal coordinates taken from checkpoint file:
 ch4-wb97xd.chk
 Charge =  0 Multiplicity = 1

 SCF Done:  E(RwB97XD) =  -40.5073081556     A.U. after    1 cycles

  Exact polarizability:  13.335   0.000  13.339   0.001   0.004  13.328
 Approx polarizability:  12.963   0.000  12.963   0.000   0.000  12.956

                     1                      2                      3
                     A                      A                      A
 Frequencies --  1337.8858              1339.8022              1344.5968
 Red. masses --     1.1792                 1.1794                 1.1794
 Frc consts  --     1.2436                 1.2474                 1.2563
 IR Inten    --    13.5987                13.7047                13.4931

                     4                      5                      6
                     A                      A                      A
 Frequencies --  1562.3285              1566.7635              3048.9891
 Red. masses --     1.0079                 1.0079                 1.0079
 Frc consts  --     1.4495                 1.4577                 5.5206
 IR Inten    --     0.0046                 0.0057                 0.0201

                     7                      8                      9
                     A                      A                      A
 Frequencies --  3173.0216              3179.5910              3180.4724
 Red. masses --     1.1012                 1.1013                 1.1012
 Frc consts  --     6.5321                 6.5601                 6.5632
 IR Inten    --    20.8733                20.9860                21.0232

 - Thermochemistry -
 -------------------
 Temperature   298.150 Kelvin.  Pressure   1.00000 Atm.
 Atom     1 has atomic number  6 and mass  12.00000

 Molecular mass:    16.03130 amu.
 Principal axes and moments of inertia in atomic units:
                           1         2         3
     Eigenvalues --    11.43552  11.43641  11.44911
           X            1.00000   0.00001  -0.00003
           Y           -0.00001   1.00000  -0.00003
           Z            0.00003   0.00003   1.00000
 This molecule is an asymmetric top.
 Rotational symmetry number  1.
 Rotational temperatures (Kelvin)      7.57410     7.57351     7.56511
 Rotational constants (GHZ):         157.81884   157.80661   157.63160
 Zero-point vibrational energy     118032.2 (Joules/Mol)
                                   28.21038 (Kcal/Mol)
 Vibrational temperatures:   1924.92  1927.67  1934.57  2247.84  2254.22
          (Kelvin)           4386.81  4565.26  4574.72  4575.98

 Zero-point correction=                           0.044956 (Hartree/Particle)
 Thermal correction to Energy=                    0.047825
 Thermal correction to Enthalpy=                  0.048769
 Thermal correction to Gibbs Free Energy=         0.025290
 Sum of electronic and zero-point Energies=            -40.462352
 Sum of electronic and thermal Energies=               -40.459484
 Sum of electronic and thermal Enthalpies=             -40.458539
 Sum of electronic and thermal Free Energies=          -40.482018

                     E (Thermal)             CV                S
                      KCal/Mol        Cal/Mol-Kelvin    Cal/Mol-Kelvin
 Total                   30.010              6.469             49.416
 Electronic               0.000              0.000              0.000
 Translational            0.889              2.981             34.261
 Rotational               0.889              2.981             15.068
 Vibrational             28.233              0.508              0.087

 Optimization completed.
    -- Stationary point found.

 1\1\GINC-PLUTO\Freq\RwB97XD\6-31G(2df,p)\C1H4\JMSOLANO\25-Apr-2025\0\\
 #N Geom=AllCheck Guess=TCheck SCRF=Check wb97xd/6-31g(2df,p) Freq\\G4-
 B3LYP ch4\\0,1\C,0.000034,-0.000016,-0.000341\H,-0.013801,0.006884,1.0
 91369\H,-0.40193,0.943784,-0.374154\H,-0.61158,-0.827351,-0.365677\H,1
 .027106,-0.123221,-0.349489\\Version=EM64L-G09RevB.01\State=1-A\HF=-40
 .5073082\RMSD=1.187e-10\RMSF=1.841e-04\ZeroPoint=0.0449561\Thermal=0.0
 478246\Dipole=-0.0000448,0.0000329,0.0004459\DipoleDeriv=-0.0084851,0.
 0002254,0.0002453,0.000443,-0.0079744,0.0004424,0.0002104,0.0000469,-0

 Normal termination of Gaussian 09 at Fri Apr 25 13:42:14 2025.

 -----------------------------------------------------------------
 #N Geom=AllCheck Guess=TCheck SCRF=Check CCSD(T,E4T,FrzG4)/GTBas1
 -----------------------------------------------------------------

 G4-B3LYP ch4
 ------------
 Redundant internal coordinates taken from checkpoint file:
 ch4-wb97xd.chk
 Charge =  0 Multiplicity = 1

 SCF Done:  E(RHF) =  -40.1949893437     A.U. after    7 cycles
 E2 =    -0.1375545565D+00 EUMP2 =    -0.40332543900168D+02
 CCSD(T)= -0.40355895592D+02
 Normal termination of Gaussian 09 at Fri Apr 25 13:42:15 2025.

 ---------------------------------------------------------
 #N Geom=AllCheck Guess=TCheck SCRF=Check MP4=FrzG4/GTBas2
 ---------------------------------------------------------

 G4-B3LYP ch4
 ------------
 Redundant internal coordinates taken from checkpoint file:
 ch4-wb97xd.chk
 Charge =  0 Multiplicity = 1

 SCF Done:  E(RHF) =  -40.1955000761     A.U. after    8 cycles
 E2 =    -0.1385795702D+00 EUMP2 =    -0.40334079646273D+02
 Normal termination of Gaussian 09 at Fri Apr 25 13:42:15 2025.

 G4-B3LYP ch4
 ------------
 Redundant internal coordinates taken from checkpoint file:
 ch4-wb97xd.chk
 Charge =  0 Multiplicity = 1

 SCF Done:  E(RHF) =  -40.2032952291     A.U. after    8 cycles
 E2 =    -0.1815931362D+00 EUMP2 =    -0.40384888365321D+02
 Normal termination of Gaussian 09 at Fri Apr 25 13:42:16 2025.

 G4-B3LYP ch4
 ------------
 Redundant internal coordinates taken from checkpoint file:
 ch4-wb97xd.chk
 Charge =  0 Multiplicity = 1

 SCF Done:  E(RHF) =  -40.2122087519     A.U. after    8 cycles
 E2 =    -0.2372047526D+00 EUMP2 =    -0.40449413504527D+02
 Normal termination of Gaussian 09 at Fri Apr 25 13:42:17 2025.
 SCF Done:  E(RHF) =  -40.2158349734     A.U. after    6 cycles
 Normal termination of Gaussian 09 at Fri Apr 25 13:42:18 2025.
 Gaussian 09:  EM64L-G09RevB.01 12-Aug-2010

                         Standard orientation:
 ---------------------------------------------------------------------
 Center     Atomic      Atomic             Coordinates (Angstroms)
 Number     Number       Type             X           Y           Z
 ---------------------------------------------------------------------
      1          6           0        0.000034   -0.000016   -0.000341
      2          1           0       -0.013796    0.006894    1.091369
      3          1           0       -0.401226    0.944083   -0.374154
      4          1           0       -0.612197   -0.826895   -0.365677
      5          1           0        1.027014   -0.123987   -0.349489
 ---------------------------------------------------------------------

 SCF Done:  E(RHF) =  -40.2166919959     A.U. after    7 cycles

 The electronic state is 1-A.
 Alpha  occ. eigenvalues --  -11.20709  -0.94147  -0.54441  -0.54437  -0.54402
 Alpha virt. eigenvalues --    0.05444   0.06266   0.06266   0.06268   0.18517
 Alpha virt. eigenvalues --    0.18519   0.18520   0.22680   0.27092   0.27092
 Alpha virt. eigenvalues --    0.27096   0.44648   0.45549   0.45566   0.45569

 Mulliken atomic charges:
              1
     1  C   -0.680149
     2  H    0.169937
     3  H    0.170064
     4  H    0.170069
     5  H    0.170079
 Sum of Mulliken atomic charges =   0.00000

 Dipole moment (field-independent basis, Debye):
    X=             -0.0001    Y=              0.0000    Z=              0.0009  Tot=              0.0009
 Quadrupole moment (field-independent basis, Debye-Ang):
   XX=             -8.4189   YY=             -8.4195   ZZ=             -8.4259
   XY=              0.0000   XZ=              0.0000   YZ=              0.0000

 Normal termination of Gaussian 09 at Fri Apr 25 13:42:26 2025.
