 Gaussian 09, Revision B.01,

 -----------------------
 #M062X/6-31g(2df,p) Opt
 -----------------------

 ------------
 G4-B3LYP ch4
 ------------
 Symbolic Z-matrix:
 Charge =  0 Multiplicity = 1

 SCF Done:  E(RM062X) =  -40.4869872050     A.U. after   12 cycles
 SCF Done:  E(RM062X) =  -40.4870033939     A.U. after    9 cycles
 Optimization completed.
    -- Stationary point found.
 Normal termination of Gaussian 09 at Fri Apr 25 13:41:18 2025.

 ----------------------------------------------------------------
 #N Geom=AllCheck Guess=TCheck SCRF=Check M062X/6-31g(2df,p) Freq
 ----------------------------------------------------------------

 G4-B3LYP ch4
 ------------
 Redundant internal coordinates taken from checkpoint file:
 ch4-m062x.chk
 Charge =  0 Multiplicity = 1

 SCF Done:  E(RM062X) =  -40.4870033939     A.U. after    1 cycles

  Exact polarizability:  13.300   0.002  13.266  -0.007  -0.016  13.348
 Approx polarizability:  13.889   0.000  13.888   0.001   0.000  13.887

                     1                      2                      3
                     A                      A                      A
 Frequencies --  1339.1422              1340.4420              1343.4657
 Red. masses --     1.1793                 1.1791                 1.1792
 Frc consts  --     1.2460                 1.2483                 1.2540
 IR Inten    --    11.9362                12.0862                12.1458

                     4                      5                      6
                     A                      A                      A
 Frequencies --  1566.7934              1568.7496              3059.0539
 Red. masses --     1.0078                 1.0078                 1.0079
 Frc consts  --     1.4577                 1.4613                 5.5571
 IR Inten    --     0.0014                 0.0003                 0.0150

                     7                      8                      9
                     A                      A                      A
 Frequencies --  3184.6813              3188.1293              3192.9607
 Red. masses --     1.1013                 1.1015                 1.1014
 Frc consts  --     6.5812                 6.5963                 6.6161
 IR Inten    --    15.4882                15.7389                15.8281

 - Thermochemistry -
 -------------------
 Temperature   298.150 Kelvin.  Pressure   1.00000 Atm.
 Atom     1 has atomic number  6 and mass  12.00000

 Molecular mass:    16.03130 amu.
 Principal axes and moments of inertia in atomic units:
                           1         2         3
     Eigenvalues --    11.39363  11.39451  11.39678
           X            1.00000   0.00001  -0.00001
           Y           -0.00001   1.00000   0.00001
           Z            0.00001  -0.00001   1.00000
 This molecule is an asymmetric top.
 Rotational symmetry number  1.
 Rotational temperatures (Kelvin)      7.60195     7.60136     7.59985
 Rotational constants (GHZ):         158.39918   158.38690   158.35542
 Zero-point vibrational energy     118331.1 (Joules/Mol)
                                   28.28182 (Kcal/Mol)
 Vibrational temperatures:   1926.72  1928.59  1932.95  2254.26  2257.08
          (Kelvin)           4401.29  4582.04  4587.00  4593.95

 Zero-point correction=                           0.045070 (Hartree/Particle)
 Thermal correction to Energy=                    0.047938
 Thermal correction to Enthalpy=                  0.048883
 Thermal correction to Gibbs Free Energy=         0.025409
 Sum of electronic and zero-point Energies=            -40.441933
 Sum of electronic and thermal Energies=               -40.439065
 Sum of electronic and thermal Enthalpies=             -40.438121
 Sum of electronic and thermal Free Energies=          -40.461594

                     E (Thermal)             CV                S
                      KCal/Mol        Cal/Mol-Kelvin    Cal/Mol-Kelvin
 Total                   30.082              6.468             49.404
 Electronic               0.000              0.000              0.000
 Translational            0.889              2.981             34.261
 Rotational               0.889              2.981             15.056
 Vibrational             28.304              0.506              0.087

 Optimization completed.
    -- Stationary point found.
 Normal termination of Gaussian 09 at Fri Apr 25 13:41:23 2025.

 -----------------------------------------------------------------
 #N Geom=AllCheck Guess=TCheck SCRF=Check CCSD(T,E4T,FrzG4)/GTBas1
 -----------------------------------------------------------------

 G4-B3LYP ch4
 ------------
 Redundant internal coordinates taken from checkpoint file:
 ch4-m062x.chk
 Charge =  0 Multiplicity = 1

 SCF Done:  E(RHF) =  -40.1950734738     A.U. after    7 cycles
 E2 =    -0.1374785482D+00 EUMP2 =    -0.40332552022023D+02
 CCSD(T)= -0.40355850166D+02
 =-40.3547853\MP4SDQ=-40.3522812\CCSD=-40.353013\CCSD(T)=-40.3558502\RM
 Normal termination of Gaussian 09 at Fri Apr 25 13:41:24 2025.

 ---------------------------------------------------------
 #N Geom=AllCheck Guess=TCheck SCRF=Check MP4=FrzG4/GTBas2
 ---------------------------------------------------------

 G4-B3LYP ch4
 ------------
 Redundant internal coordinates taken from checkpoint file:
 ch4-m062x.chk
 Charge =  0 Multiplicity = 1

 SCF Done:  E(RHF) =  -40.1955801451     A.U. after    8 cycles
 E2 =    -0.1384975276D+00 EUMP2 =    -0.40334077672651D+02
 Normal termination of Gaussian 09 at Fri Apr 25 13:41:24 2025.

 ---------------------------------------------------------
 #N Geom=AllCheck Guess=TCheck SCRF=Check MP4=FrzG4/GTBas3
 ---------------------------------------------------------

 G4-B3LYP ch4
 ------------
 Redundant internal coordinates taken from checkpoint file:
 ch4-m062x.chk
 Charge =  0 Multiplicity = 1

 SCF Done:  E(RHF) =  -40.2033734366     A.U. after    8 cycles
 E2 =    -0.1815506112D+00 EUMP2 =    -0.40384924047760D+02
 Normal termination of Gaussian 09 at Fri Apr 25 13:41:25 2025.

 -----------------------------------------------------------
 #N Geom=AllCheck Guess=TCheck SCRF=Check MP2=Full/GTLargeXP
 -----------------------------------------------------------

 G4-B3LYP ch4
 ------------
 Redundant internal coordinates taken from checkpoint file:
 ch4-m062x.chk
 Charge =  0 Multiplicity = 1

 SCF Done:  E(RHF) =  -40.2123076004     A.U. after    8 cycles
 E2 =    -0.2371812655D+00 EUMP2 =    -0.40449488865887D+02
 Normal termination of Gaussian 09 at Fri Apr 25 13:41:26 2025.
 SCF Done:  E(RHF) =  -40.2159385761     A.U. after    6 cycles
 Normal termination of Gaussian 09 at Fri Apr 25 13:41:27 2025.
 Gaussian 09:  EM64L-G09RevB.01 12-Aug-2010

                         Standard orientation:
 ---------------------------------------------------------------------
 Center     Atomic      Atomic             Coordinates (Angstroms)
 Number     Number       Type             X           Y           Z
 ---------------------------------------------------------------------
      1          6           0       -0.000041    0.000023   -0.000071
      2          1           0        0.297401   -0.225370    1.023733
      3          1           0       -0.665347   -0.781801   -0.365250
      4          1           0        0.885712    0.048469   -0.632849
      5          1           0       -0.517517    0.958564   -0.025205
 ---------------------------------------------------------------------

 SCF Done:  E(RHF) =  -40.2167985563     A.U. after    7 cycles

 The electronic state is 1-A.
 Alpha  occ. eigenvalues --  -11.20600  -0.94236  -0.54486  -0.54486  -0.54474
 Alpha virt. eigenvalues --    0.05444   0.06265   0.06265   0.06266   0.18530
 Alpha virt. eigenvalues --    0.18531   0.18532   0.22700   0.27084   0.27084
 Alpha virt. eigenvalues --    0.27086   0.44648   0.45610   0.45616   0.45617

 Mulliken atomic charges:
              1
     1  C   -0.678534
     2  H    0.169611
     3  H    0.169642
     4  H    0.169636
     5  H    0.169644
 Sum of Mulliken atomic charges =   0.00000

 Dipole moment (field-independent basis, Debye):
    X=              0.0000    Y=              0.0000    Z=              0.0001  Tot=              0.0001
 Quadrupole moment (field-independent basis, Debye-Ang):
   XX=             -8.4137   YY=             -8.4139   ZZ=             -8.4154
   XY=              0.0000   XZ=             -0.0001   YZ=              0.0001

 Normal termination of Gaussian 09 at Fri Apr 25 13:41:35 2025.
