 Gaussian 09, Revision B.01,

 ---------------------
 #MP2/6-31g(2df,p) Opt
 ---------------------

 ------------
 G4-B3LYP ch4
 ------------
 Symbolic Z-matrix:
 Charge =  0 Multiplicity = 1

 SCF Done:  E(RHF) =  -40.2032952291     A.U. after    8 cycles
 E2 =    -0.1815931360D+00 EUMP2 =    -0.40384888365078D+02
 SCF Done:  E(RHF) =  -40.2034279827     A.U. after    8 cycles
 E2 =    -0.1815067681D+00 EUMP2 =    -0.40384934750811D+02
 Optimization completed.
    -- Stationary point found.

 1\1\GINC-PLUTO\FOpt\RMP2-FC\6-31G(2df,p)\C1H4\JMSOLANO\25-Apr-2025\0\\
 #MP2/6-31g(2df,p) Opt\\G4-B3LYP ch4\\0,1\C,-0.0000172033,0.0000063068,
 0.000160835\H,-0.0137358654,0.006853762,1.0875209097\H,-0.4001445586,0
 .9396838719,-0.3729934219\H,-0.6088752029,-0.8237718622,-0.3645520582\
 H,1.0226018302,-0.1226920784,-0.3484282646\\Version=EM64L-G09RevB.01\S
 tate=1-A\HF=-40.203428\MP2=-40.3849348\RMSD=4.359e-09\RMSF=9.080e-05\D
 ipole=-0.0000079,0.0000049,0.0000771\PG=C01 [X(C1H4)]\\@

 Normal termination of Gaussian 09 at Fri Apr 25 13:41:38 2025.

 --------------------------------------------------------------
 #N Geom=AllCheck Guess=TCheck SCRF=Check MP2/6-31g(2df,p) Freq
 --------------------------------------------------------------

 G4-B3LYP ch4
 ------------
 Redundant internal coordinates taken from checkpoint file:
 ch4-mp2.chk
 Charge =  0 Multiplicity = 1

 SCF Done:  E(RHF) =  -40.2034279827     A.U. after    1 cycles
 E2 =    -0.1815067683D+00 EUMP2 =    -0.40384934751072D+02
 E2 =    -0.1815067683D+00 EUMP2 =    -0.40384934751072D+02

  Exact polarizability:  12.851   0.000  12.851   0.000   0.000  12.851
 Approx polarizability:  10.787   0.000  10.787   0.000   0.000  10.787

                     1                      2                      3
                     A                      A                      A
 Frequencies --  1369.8382              1370.2162              1370.2466
 Red. masses --     1.1787                 1.1786                 1.1786
 Frc consts  --     1.3031                 1.3038                 1.3038
 IR Inten    --    13.2855                13.2638                13.2614

                     4                      5                      6
                     A                      A                      A
 Frequencies --  1600.7516              1600.7552              3111.0401
 Red. masses --     1.0078                 1.0078                 1.0078
 Frc consts  --     1.5215                 1.5215                 5.7471
 IR Inten    --     0.0000                 0.0000                 0.0002

                     7                      8                      9
                     A                      A                      A
 Frequencies --  3253.8811              3254.8115              3254.8751
 Red. masses --     1.1019                 1.1020                 1.1020
 Frc consts  --     6.8739                 6.8782                 6.8785
 IR Inten    --    12.3513                12.3095                12.3059

 - Thermochemistry -
 -------------------
 Temperature   298.150 Kelvin.  Pressure   1.00000 Atm.
 Atom     1 has atomic number  6 and mass  12.00000

 Molecular mass:    16.03130 amu.
 Principal axes and moments of inertia in atomic units:
                           1         2         3
     Eigenvalues --    11.34706  11.34722  11.34931
           X            1.00000   0.00001   0.00001
           Y           -0.00001   1.00000   0.00000
           Z           -0.00001   0.00000   1.00000
 This molecule is an asymmetric top.
 Rotational symmetry number  1.
 Rotational temperatures (Kelvin)      7.63315     7.63304     7.63164
 Rotational constants (GHZ):         159.04918   159.04699   159.01767
 Zero-point vibrational energy     120741.6 (Joules/Mol)
                                   28.85793 (Kcal/Mol)
 Vibrational temperatures:   1970.89  1971.43  1971.48  2303.12  2303.13
          (Kelvin)           4476.09  4681.60  4682.94  4683.03

 Zero-point correction=                           0.045988 (Hartree/Particle)
 Thermal correction to Energy=                    0.048852
 Thermal correction to Enthalpy=                  0.049796
 Thermal correction to Gibbs Free Energy=         0.026334
 Sum of electronic and zero-point Energies=            -40.338947
 Sum of electronic and thermal Energies=               -40.336082
 Sum of electronic and thermal Enthalpies=             -40.335138
 Sum of electronic and thermal Free Energies=          -40.358601

                     E (Thermal)             CV                S
                      KCal/Mol        Cal/Mol-Kelvin    Cal/Mol-Kelvin
 Total                   30.655              6.418             49.381
 Electronic               0.000              0.000              0.000
 Translational            0.889              2.981             34.261
 Rotational               0.889              2.981             15.043
 Vibrational             28.878              0.457              0.076

 Optimization completed.
    -- Stationary point found.

 1\1\GINC-PLUTO\Freq\RMP2-FC\6-31G(2df,p)\C1H4\JMSOLANO\25-Apr-2025\0\\
 #N Geom=AllCheck Guess=TCheck SCRF=Check MP2/6-31g(2df,p) Freq\\G4-B3L
 YP ch4\\0,1\C,-0.0000172033,0.0000063068,0.000160835\H,-0.0137358654,0
 .006853762,1.0875209097\H,-0.4001445586,0.9396838719,-0.3729934219\H,-
 0.6088752029,-0.8237718622,-0.3645520582\H,1.0226018302,-0.1226920784,
 -0.3484282646\\Version=EM64L-G09RevB.01\State=1-A\HF=-40.203428\MP2=-4
 0.3849348\RMSD=2.882e-10\RMSF=9.080e-05\ZeroPoint=0.045988\Thermal=0.0
 488523\Dipole=-0.0000079,0.0000049,0.0000771\DipoleDeriv=-0.0418302,0.

 Normal termination of Gaussian 09 at Fri Apr 25 13:41:43 2025.

 -----------------------------------------------------------------
 #N Geom=AllCheck Guess=TCheck SCRF=Check CCSD(T,E4T,FrzG4)/GTBas1
 -----------------------------------------------------------------

 G4-B3LYP ch4
 ------------
 Redundant internal coordinates taken from checkpoint file:
 ch4-mp2.chk
 Charge =  0 Multiplicity = 1

 SCF Done:  E(RHF) =  -40.1951335672     A.U. after    8 cycles
 E2 =    -0.1374000734D+00 EUMP2 =    -0.40332533640587D+02
 CCSD(T)= -0.40355776356D+02
 4SDTQ=-40.3547179\MP4SDQ=-40.3522261\CCSD=-40.3529518\CCSD(T)=-40.3557
 Normal termination of Gaussian 09 at Fri Apr 25 13:41:43 2025.

 ---------------------------------------------------------
 #N Geom=AllCheck Guess=TCheck SCRF=Check MP4=FrzG4/GTBas2
 ---------------------------------------------------------

 G4-B3LYP ch4
 ------------
 Redundant internal coordinates taken from checkpoint file:
 ch4-mp2.chk
 Charge =  0 Multiplicity = 1

 SCF Done:  E(RHF) =  -40.1956360482     A.U. after    8 cycles
 E2 =    -0.1384128317D+00 EUMP2 =    -0.40334048879855D+02
 Normal termination of Gaussian 09 at Fri Apr 25 13:41:44 2025.

 G4-B3LYP ch4
 ------------
 Redundant internal coordinates taken from checkpoint file:
 ch4-mp2.chk
 Charge =  0 Multiplicity = 1

 SCF Done:  E(RHF) =  -40.2034279827     A.U. after    8 cycles
 E2 =    -0.1815067686D+00 EUMP2 =    -0.40384934751384D+02
 Normal termination of Gaussian 09 at Fri Apr 25 13:41:44 2025.

 G4-B3LYP ch4
 ------------
 Redundant internal coordinates taken from checkpoint file:
 ch4-mp2.chk
 Charge =  0 Multiplicity = 1

 SCF Done:  E(RHF) =  -40.2123840552     A.U. after    8 cycles
 E2 =    -0.2371576961D+00 EUMP2 =    -0.40449541751244D+02
 Normal termination of Gaussian 09 at Fri Apr 25 13:41:45 2025.
 SCF Done:  E(RHF) =  -40.2160200177     A.U. after    6 cycles
 Normal termination of Gaussian 09 at Fri Apr 25 13:41:47 2025.
 Gaussian 09:  EM64L-G09RevB.01 12-Aug-2010

                         Standard orientation:
 ---------------------------------------------------------------------
 Center     Atomic      Atomic             Coordinates (Angstroms)
 Number     Number       Type             X           Y           Z
 ---------------------------------------------------------------------
      1          6           0        0.000011   -0.000009   -0.000090
      2          1           0       -0.050258    0.040988    1.085442
      3          1           0       -0.274595    0.968044   -0.412165
      4          1           0       -0.687923   -0.758356   -0.366136
      5          1           0        1.012711   -0.250625   -0.306602
 ---------------------------------------------------------------------

 SCF Done:  E(RHF) =  -40.2168831153     A.U. after    7 cycles

 The electronic state is 1-A.
 Alpha  occ. eigenvalues --  -11.20486  -0.94330  -0.54544  -0.54544  -0.54532
 Alpha virt. eigenvalues --    0.05444   0.06264   0.06264   0.06264   0.18543
 Alpha virt. eigenvalues --    0.18544   0.18545   0.22720   0.27075   0.27075
 Alpha virt. eigenvalues --    0.27076   0.44649   0.45665   0.45671   0.45672

 Mulliken atomic charges:
              1
     1  C   -0.676777
     2  H    0.169171
     3  H    0.169200
     4  H    0.169202
     5  H    0.169204
 Sum of Mulliken atomic charges =   0.00000

 Dipole moment (field-independent basis, Debye):
    X=              0.0000    Y=              0.0000    Z=              0.0001  Tot=              0.0001
 Quadrupole moment (field-independent basis, Debye-Ang):
   XX=             -8.4064   YY=             -8.4065   ZZ=             -8.4080
   XY=              0.0000   XZ=              0.0000   YZ=              0.0000

 Normal termination of Gaussian 09 at Fri Apr 25 13:41:55 2025.
