 Gaussian 09, Revision B.01,
 Gaussian 09:  EM64L-G09RevB.01 12-Aug-2010

 ---
 #G4
 ---
 1/14=-1,18=20,19=15,26=3,38=1/1,3;
 2/9=110,12=2,17=6,18=5,40=1/2;
 3/5=35,7=104,11=2,16=1,25=1,30=1,71=1,74=-5/1,2,3;
 4//1;
 5/5=2,38=5/2;

 ------
 G4 ch4
 ------
 Symbolic Z-matrix:
 Charge =  0 Multiplicity = 1

 SCF Done:  E(RB3LYP) =  -40.5236803101     A.U. after    9 cycles
 Optimization completed.
    -- Stationary point found.
 Normal termination of Gaussian 09 at Fri Apr 25 11:57:36 2025.

 ----------------------------------------------------------
 #N Geom=AllCheck Guess=TCheck SCRF=Check B3LYP/GTBas3 Freq
 ----------------------------------------------------------

 G4 ch4
 ------
 Redundant internal coordinates taken from checkpoint file:
 ch4.chk
 Charge =  0 Multiplicity = 1

 SCF Done:  E(RB3LYP) =  -40.5236803101     A.U. after    1 cycles

  Exact polarizability:  13.210   0.000  13.209   0.000   0.000  13.203
 Approx polarizability:  16.418   0.000  16.418   0.000   0.000  16.409

                     1                      2                      3
                     A                      A                      A
 Frequencies --  1340.3983              1341.4682              1341.6264
 Red. masses --     1.1801                 1.1799                 1.1799
 Frc consts  --     1.2493                 1.2510                 1.2513
 IR Inten    --    10.9208                10.8049                10.7997

                     4                      5                      6
                     A                      A                      A
 Frequencies --  1562.7498              1562.7992              3039.7162
 Red. masses --     1.0078                 1.0078                 1.0078
 Frc consts  --     1.4502                 1.4502                 5.4866
 IR Inten    --     0.0000                 0.0000                 0.0001

                     7                      8                      9
                     A                      A                      A
 Frequencies --  3152.6758              3153.2631              3153.7399
 Red. masses --     1.1007                 1.1008                 1.1009
 Frc consts  --     6.4455                 6.4489                 6.4511
 IR Inten    --    22.1624                21.9954                21.9647

 - Thermochemistry -
 -------------------
 Temperature   298.150 Kelvin.  Pressure   1.00000 Atm.
 Atom     1 has atomic number  6 and mass  12.00000

 Molecular mass:    16.03130 amu.
 Principal axes and moments of inertia in atomic units:
                           1         2         3
     Eigenvalues --    11.43552  11.43641  11.44911
           X            1.00000   0.00001  -0.00003
           Y           -0.00001   1.00000  -0.00003
           Z            0.00003   0.00003   1.00000
 This molecule is an asymmetric top.
 Rotational symmetry number  1.
 Rotational temperatures (Kelvin)      7.57410     7.57351     7.56511
 Rotational constants (GHZ):         157.81884   157.80661   157.63160
 Zero-point vibrational energy     117523.8 (Joules/Mol)
                                   28.08885 (Kcal/Mol)
 Vibrational temperatures:   1928.53  1930.07  1930.30  2248.45  2248.52
          (Kelvin)           4373.47  4535.99  4536.84  4537.52

 Zero-point correction=                           0.044762 (Hartree/Particle)
 Thermal correction to Energy=                    0.047631
 Thermal correction to Enthalpy=                  0.048575
 Thermal correction to Gibbs Free Energy=         0.025096
 Sum of electronic and zero-point Energies=            -40.478918
 Sum of electronic and thermal Energies=               -40.476049
 Sum of electronic and thermal Enthalpies=             -40.475105
 Sum of electronic and thermal Free Energies=          -40.498584

                     E (Thermal)             CV                S
                      KCal/Mol        Cal/Mol-Kelvin    Cal/Mol-Kelvin
 Total                   29.889              6.469             49.416
 Electronic               0.000              0.000              0.000
 Translational            0.889              2.981             34.261
 Rotational               0.889              2.981             15.068
 Vibrational             28.111              0.508              0.087

 Optimization completed.
    -- Stationary point found.
 Normal termination of Gaussian 09 at Fri Apr 25 11:57:40 2025.

 -----------------------------------------------------------------
 #N Geom=AllCheck Guess=TCheck SCRF=Check CCSD(T,E4T,FrzG4)/GTBas1
 -----------------------------------------------------------------

 G4 ch4
 ------
 Redundant internal coordinates taken from checkpoint file:
 ch4.chk
 Charge =  0 Multiplicity = 1

 SCF Done:  E(RHF) =  -40.1949893437     A.U. after    7 cycles
 E2 =    -0.1375545566D+00 EUMP2 =    -0.40332543900298D+02
 CCSD(T)= -0.40355895592D+02
 09\MP4SDTQ=-40.3548245\MP4SDQ=-40.3523084\CCSD=-40.3530462\CCSD(T)=-40
 Normal termination of Gaussian 09 at Fri Apr 25 11:57:40 2025.

 ---------------------------------------------------------
 #N Geom=AllCheck Guess=TCheck SCRF=Check MP4=FrzG4/GTBas2
 ---------------------------------------------------------

 G4 ch4
 ------
 Redundant internal coordinates taken from checkpoint file:
 ch4.chk
 Charge =  0 Multiplicity = 1

 SCF Done:  E(RHF) =  -40.1955000761     A.U. after    8 cycles
 E2 =    -0.1385795702D+00 EUMP2 =    -0.40334079646273D+02
 Normal termination of Gaussian 09 at Fri Apr 25 11:57:40 2025.

 ---------------------------------------------------------
 #N Geom=AllCheck Guess=TCheck SCRF=Check MP4=FrzG4/GTBas3
 ---------------------------------------------------------

 G4 ch4
 ------
 Redundant internal coordinates taken from checkpoint file:
 ch4.chk
 Charge =  0 Multiplicity = 1

 SCF Done:  E(RHF) =  -40.2032952291     A.U. after    8 cycles
 E2 =    -0.1815931362D+00 EUMP2 =    -0.40384888365321D+02
 Normal termination of Gaussian 09 at Fri Apr 25 11:57:41 2025.

 -----------------------------------------------------------
 #N Geom=AllCheck Guess=TCheck SCRF=Check MP2=Full/GTLargeXP
 -----------------------------------------------------------

 G4 ch4
 ------
 Redundant internal coordinates taken from checkpoint file:
 ch4.chk
 Charge =  0 Multiplicity = 1

 SCF Done:  E(RHF) =  -40.2122087519     A.U. after    8 cycles
 E2 =    -0.2372047526D+00 EUMP2 =    -0.40449413504526D+02
 Normal termination of Gaussian 09 at Fri Apr 25 11:57:42 2025.
 SCF Done:  E(RHF) =  -40.2158349734     A.U. after    6 cycles
 Normal termination of Gaussian 09 at Fri Apr 25 11:57:43 2025.

                         Standard orientation:
 ---------------------------------------------------------------------
 Center     Atomic      Atomic             Coordinates (Angstroms)
 Number     Number       Type             X           Y           Z
 ---------------------------------------------------------------------
      1          6           0        0.000034   -0.000016   -0.000341
      2          1           0       -0.013796    0.006894    1.091369
      3          1           0       -0.401226    0.944083   -0.374154
      4          1           0       -0.612197   -0.826895   -0.365677
      5          1           0        1.027014   -0.123987   -0.349489
 ---------------------------------------------------------------------

 SCF Done:  E(RHF) =  -40.2166919959     A.U. after    7 cycles

 The electronic state is 1-A.
 Alpha  occ. eigenvalues --  -11.20709  -0.94147  -0.54441  -0.54437  -0.54402
 Alpha virt. eigenvalues --    0.05444   0.06266   0.06266   0.06268   0.18517
 Alpha virt. eigenvalues --    0.18519   0.18520   0.22680   0.27092   0.27092
 Alpha virt. eigenvalues --    0.27096   0.44648   0.45549   0.45566   0.45569

 Mulliken atomic charges:
              1
     1  C   -0.680149
     2  H    0.169937
     3  H    0.170064
     4  H    0.170069
     5  H    0.170079
 Sum of Mulliken atomic charges =   0.00000

 Dipole moment (field-independent basis, Debye):
    X=             -0.0001    Y=              0.0000    Z=              0.0009  Tot=              0.0009
 Quadrupole moment (field-independent basis, Debye-Ang):
   XX=             -8.4189   YY=             -8.4195   ZZ=             -8.4259
   XY=              0.0000   XZ=              0.0000   YZ=              0.0000

 Normal termination of Gaussian 09 at Fri Apr 25 11:57:51 2025.
